
Host: login02.cluster

Timers On : Thu Aug  8 08:02:15 2024
Timers Off: Thu Aug  8 08:02:47 2024

Wall Time:       32.10 seconds

                                                       Time (seconds)
Module                                       User      System        Wall        Calls

--------------------------------------------------------------------------------------

**************************************************************************************
